
                                 *****************
                                 * O   R   C   A *
                                 *****************

                                            #,                                       
                                            ###                                      
                                            ####                                     
                                            #####                                    
                                            ######                                   
                                           ########,                                 
                                     ,,################,,,,,                         
                               ,,#################################,,                 
                          ,,##########################################,,             
                       ,#########################################, ''#####,          
                    ,#############################################,,   '####,        
                  ,##################################################,,,,####,       
                ,###########''''           ''''###############################       
              ,#####''   ,,,,##########,,,,          '''####'''          '####       
            ,##' ,,,,###########################,,,                        '##       
           ' ,,###''''                  '''############,,,                           
         ,,##''                                '''############,,,,        ,,,,,,###''
      ,#''                                            '''#######################'''  
     '                                                          ''''####''''         
             ,#######,   #######,   ,#######,      ##                                
            ,#'     '#,  ##    ##  ,#'     '#,    #''#        ,####,   ,####,        
            ##       ##  ##   ,#'  ##            #'  '#       #'       #'  '#        
            ##       ##  #######   ##           ,######,      #####,   #    #        
            '#,     ,#'  ##    ##  '#,     ,#' ,#      #,     #,   #   #,  ,#        
             '#######'   ##     ##  '#######'  #'      '#     '####' # '####'        



                #########################################################
                #                        -***-                          #
                #          Department of theory and spectroscopy        #
                #                                                       #
                #                      Frank Neese                      #
                #                                                       #
                #     Directorship, Architecture, Infrastructure        #
                #                    SHARK, DRIVERS                     #
                #        Core code/Algorithms in most modules           #
                #                                                       #
                #        Max Planck Institute fuer Kohlenforschung      #
                #                Kaiser Wilhelm Platz 1                 #
                #                 D-45470 Muelheim/Ruhr                 #
                #                      Germany                          #
                #                                                       #
                #                  All rights reserved                  #
                #                        -***-                          #
                #########################################################


                         Program Version 6.0.1  -  RELEASE   -


 With contributions from (in alphabetic order):
[Max-Planck-Institut fuer Kohlenforschung]                               
  Daniel Aravena         : Magnetic Suceptibility                        
  Michael Atanasov       : Ab Initio Ligand Field Theory (pilot matlab implementation)
  Alexander A. Auer      : GIAO ZORA, VPT2 properties, NMR spectrum      
  Ute Becker             : All parallelization in ORCA, NUMFREQ, NUMCALC 
  Giovanni Bistoni       : ED, misc. LED, open-shell LED, HFLD           
  Martin Brehm           : Molecular dynamics                            
  Dmytro Bykov           : pre 5.0 version of the SCF Hessian            
  Marcos Casanova-Páez   : Triplet and SCS-CIS(D). UHF-(DLPNO)-IP/EA/STEOM-CCSD. UHF-CVS-IP/STEOM-CCSD   
  Vijay G. Chilkuri      : MRCI spin determinant printing, contributions to CSF-ICE 
  Pauline Colinet        : FMM embedding                                 
  Dipayan Datta          : RHF DLPNO-CCSD density                        
  Achintya Kumar Dutta   : EOM-CC, STEOM-CC                              
  Nicolas Foglia         : Exact transition moments, OPA infrastructure, MCD improvements    
  Dmitry Ganyushin       : Spin-Orbit,Spin-Spin,Magnetic field MRCI      
  Miquel Garcia-Rates    : C-PCM and meta-GGA Hessian, CCSD/C-PCM, Gaussian charge scheme 
  Tiago L. C. Gouveia    : GS-ROHF, GS-ROCIS                             
  Yang Guo               : DLPNO-NEVPT2, F12-NEVPT2, CIM, IAO-localization        
  Andreas Hansen         : Spin unrestricted coupled pair/coupled cluster methods 
  Ingolf Harden          : AUTO-CI MPn and infrastructure                
  Benjamin Helmich-Paris : MC-RPA, TRAH-(SCF,CASSCF), AVAS, COSX integrals, SCF dyn. polar. 
  Lee Huntington         : MR-EOM, pCC                                   
  Robert Izsak           : Overlap fitted RIJCOSX, COSX-SCS-MP3, EOM     
  Riya Kayal             : Wick's Theorem for AUTO-CI, AUTO-CI UHF-CCSDT 
  Emily Kempfer          : AUTO-CI, RHF CISDT and CCSDT                  
  Christian Kollmar      : KDIIS, OOCD, Brueckner-CCSD(T), CCSD density, CASPT2, CASPT2-K, improved NEVPT2 
  Axel Koslowski         : Symmetry handling                             
  Simone Kossmann        : meta-GGA functionals, TD-DFT gradient, OOMP2, (MP2 Hessian; deprecated post 5.0) 
  Lucas Lang             : DCDCAS                                        
  Marvin Lechner         : AUTO-CI (C++ implementation), FIC-MRCC        
  Spencer Leger          : CASSCF response                               
  Dagmar Lenk            : GEPOL surface, SMD, ORCA-2-JSON               
  Dimitrios Liakos       : Extrapolation schemes; Compound Job, initial MDCI parallelization 
  Dimitrios Manganas     : Further ROCIS development; embedding schemes. LFT, Crystal Embedding 
  Dimitrios Pantazis     : SARC Basis sets                               
  Anastasios Papadopoulos: AUTO-CI, single reference methods and gradients 
  Taras Petrenko         : pre 6.0 DFT Hessian and TD-DFT gradient, (ASA, deprecated), ECA, 1-Electron XAS/XES, NRVS 
  Peter Pinski           : DLPNO-MP2, DLPNO-MP2 Gradient                 
  Christoph Reimann      : Effective Core Potentials                     
  Marius Retegan         : Local ZFS, SOC                                
  Christoph Riplinger    : Optimizer, TS searches, QM/MM, DLPNO-CCSD(T), (RO)-DLPNO pert. Triples 
  Michael Roemelt        : Original ROCIS implementation                 
  Masaaki Saitow         : Open-shell DLPNO-CCSD energy and density      
  Barbara Sandhoefer     : DKH picture change effects                    
  Kantharuban Sivalingam : CASSCF convergence/infrastructure, NEVPT2 and variants, FIC-MRCI 
  Bernardo de Souza      : ESD, SOC TD-DFT                               
  Georgi L. Stoychev     : AutoAux, RI-MP2 NMR, DLPNO-MP2 response, X2C  
  Van Anh Tran           : RI-MP2 g-tensors                              
  Willem Van den Heuvel  : Paramagnetic NMR                              
  Zikuan Wang            : NOTCH, Electric field optimization            
  Frank Wennmohs         : Technical directorship and infrastructure     
  Hang Xu                : AUTO-CI-Response properties                   
                                                                         
[FACCTs GmbH]                                                            
  Markus Bursch, Miquel Garcia-Rates, Christoph Riplinger, Bernardo de Souza, Georgi L. Stoychev 
                                                                 
  APM, Basis sets (HGBS, AHGBS, def-TZVP (Ac-Lr), def2-XVPD (La-Lu)), CI-OPT, improved COSX, DLPNO-Multilevel,           
  DOCKER, DRACO, updates on ESD, GOAT, IRC, LR-CPCM, MBIS, meta-GGA TD-DFT gradient, ML-optimized integration grids, 
  MM, NACMEs, nearIR, NEB, NEB-TS, NL-DFT gradient (VV10), 2- and 3-layer-ONIOM, interface openCOSMO-RS, QMMM,   
  Crystal-QMMM, SF, symmetry and pop. for TD-DFT, r2SCAN hybrids, SOLVATOR                                   
                                                                         
[Other institutions]                                                     
  V. Asgeirsson          : NEB                                           
  Christoph Bannwarth    : sTDA-DFT, sTD-DFT, PBEh-3c, B97-3c, D3        
  Sebastian Ehlert       : rSCAN, r2SCAN, r2SCAN-3c, D4, dhf basis sets  
  Marvin Friede          : D4 for Fr, Ra, Ac-Lr                          
  Lars Goerigk           : TD-DFT with DH, B97 family of functionals     
  Stefan Grimme          : VdW corrections, initial TS optimization, DFT functionals, gCP, sTDA/sTD-DF 
  Waldemar Hujo          : DFT-NL                                        
  H. Jonsson             : NEB                                           
  Holger Kruse           : gCP                                           
  Marcel Mueller         : wB97X-3c, vDZP basis set                      
  Hagen Neugebauer       : wr2SCAN                                       
  Tobias Risthaus        : range-separated hybrid DFT                    
  Lukas Wittmann         : regularized MP2, r2SCAN double-hybrids, wr2SCAN        
                                                                         
We gratefully acknowledge several colleagues who have allowed us to      
interface, adapt or use parts of their codes:                            
  Ed Valeev, F. Pavosevic, A. Kumar             : LibInt (2-el integral package), F12 methods 
  Garnet Chan, S. Sharma, J. Yang, R. Olivares  : DMRG                   
  Ulf Ekstrom                                   : XCFun DFT Library      
  Mihaly Kallay                                 : mrcc  (arbitrary order and MRCC methods)
  Frank Weinhold                                : gennbo (NPA and NBO analysis)           
  Simon Mueller                                 : openCOSMO-RS                            
  Christopher J. Cramer and Donald G. Truhlar   : smd solvation model                     
  S Lehtola, MJT Oliveira, MAL Marques          : LibXC Library                           
  Liviu Ungur et al                             : ANISO software                          


 Your calculation uses the libint2 library for the computation of 2-el integrals
 For citations please refer to: http://libint.valeyev.net

 Your ORCA version has been built with support for libXC version: 6.2.2
 For citations please refer to: https://libxc.gitlab.io

 This ORCA versions uses:
   CBLAS   interface :  Fast vector & matrix operations
   LAPACKE interface :  Fast linear algebra routines
   SCALAPACK package :  Parallel linear algebra routines
   Shared memory     :  Shared parallel matrices
   BLAS/LAPACK       :  OpenBLAS 0.3.27  USE64BITINT DYNAMIC_ARCH NO_AFFINITY SapphireRapids SINGLE_THREADED
        Core in use  :  SapphireRapids
   Copyright (c) 2011-2014, The OpenBLAS Project


NOTE: MaxCore=1024 MB was set to SCF,MP2,MDCI,CIPSI,MRCI and CIS
      => If you want to overwrite this, your respective input block should be placed after the MaxCore statement
Warning: RI is on but no J-basis has been assigned. Assigning Def2/J (nothing to worry about!)
================================================================================

----- Orbital basis set information -----
Your calculation utilizes the basis: def2-SVP
   F. Weigend and R. Ahlrichs, Phys. Chem. Chem. Phys. 7, 3297 (2005).

----- AuxJ basis set information -----
Your calculation utilizes the auxiliary basis: def2/J
   F. Weigend, Phys. Chem. Chem. Phys. 8, 1057 (2006).

================================================================================
                                        WARNINGS
                       Please study these warnings very carefully!
================================================================================


WARNING: Found SCFConvIgnored == true
  ===> : Will try to continue after any unconverged SCF -
         no matter how far from convergence the wavefunction might be.

         Please be very careful with your results!


================================================================================
                                       INPUT FILE
================================================================================
NAME = 06_ground_md.inp
|  1> ! MD B3LYP def2-SVP DEFGRID2 TightSCF
|  2> 
|  3> %pal nprocs 4 end
|  4> 
|  5> %maxcore 1024
|  6> 
|  7> %md
|  8>   PrintLevel Medium
|  9>   Randomize 1127
| 10>   Timestep 0.500_fs
| 11>   Initvel 300.0_K
| 12>   Thermostat NHC 300.0_K Timecon 10.0_fs
| 13>   SCFLog Append
| 14>   Dump Position Stride 1 Filename "trajectory.xyz"
| 15>   Run 200
| 16> end
| 17> 
| 18> * xyz 0 1
| 19> O   0.000000000  0.000000000  0.000000000
| 20> H   0.000000000  0.757160000  0.586260000
| 21> H   0.000000000 -0.757160000  0.586260000
| 22> *
| 23> 
| 24>                          ****END OF INPUT****
================================================================================

-------------------------------------------------------------------------------------------

MD module early startup:
  Installed signal handlers.
  Extracted executable name.
  Initialized library credit list.
  Parsed command line without errors.
  Initialized console color.
Done.

Will write log file to "06_ground_md.md.log".

Command line:  /projects/cint/ORCA/orca_6_0_1/orca_md -orca 06_ground_md

-------------------------------------------------------------------------------------------


     _____    ___    _   _       _                  ______ ______  _____   ___  
    /  ___|  / _ \  | \ | |     | |           _    /  __  \| ___ \/  __ \ / _ \ 
    \ `--.  / /_\ \ |  \| |   __| | _   _   _| |_  | |  | || |_/ /| /  \// /_\ \
     `--. \ |  _  | | . ` |  / _` || | | | |_   _| | |  | ||    / | |    |  _  |
    /\__/ / | | | | | |\  | | (_| || |_| |   |_|   | \__/ || |\ \ | \__/\| | | |
    \____/  \_| |_/ \_| \_/  \__,_| \__, |          \____/ \_| \_| \____/\_| |_/
                                     __/ |                                      
                                    |___/                                       


    ####################################################################
    ########     Scriptable Nuclear Dynamics (SANdy) + ORCA     ########
    ########           (c) Martin Brehm, 2016 - 2024            ########
    ########           Paderborn University, Germany            ########
    ########           https://sanscript.org/orcamd             ########
    ####################################################################


  * Compiled as ORCA module. Called from ORCA.
  * ORCA base name: "06_ground_md"
  * Source code version: June 30 2024, compiled at Nov  6 2024 11:36:45.
  * Enabled features: SAN_MD, SAN_INTERPRETER
  * Libraries: KISS_FFT, LBFGSBC
  * Executable name: "/projects/cint/ORCA/orca_6_0_1/orca_md"
  * Messages are redirected, Errors are redirected, Output is redirected
  * Running on cn883 at Mon May 11 11:33:21 2026 (PID 3180428)
  * Running in /vast/home/akhanna2/data/software/orcaflow/tests/cluster_smoke_bundle/results/06_ground_md

    -----------------------------------------------

    Technical information:

  * Compiler:      LLVM, CLANG 18.1.8, "Clang 18.1.8 (/home/frankw/CompEnv/src/llvm1818/llvm-project/clang 3b5b5c1ec4a3095ab096dd780e84d7ab81f3d7ff)", Linux, __cplusplus=201103L
  * Compile host:  x86_64, char=8bits, int=4b, long=8b, ll=8b, addr=8b, 0x01020304=4,3,2,1.
  * Compile flags: MMX, SSE, SSE2
  * Local machine: Intel(R) Xeon(R) Platinum 8480L (GenuineIntel), Family 6, Model 143, Stepping 7
                   2 CPUs, 112 cores, 224 threads,  Uptime 11d 02h 48m 29s
                   MMX, SSE, SSE2, SSE3, SSSE3, SSE4.1, SSE4.2, POPCNT, AES, FMA3, AVX, AVX2, AVX512F, SHA
                   Caches: 112x L1d (5376 KiB), 112x L1i (3584 KiB), 112x L2 (224 MiB), 2x L3 (210 MiB)
  * Op. System:    Red Hat Enterprise Linux 8.10 (Ootpa), Linux version 4.18.0-553.94.1.el8_10.x86_64 
  * Phys. Memory:  251.55 GiB total,  238.22 GiB free
  * Stack size:    17179869184.00 GiB


The following libraries are included:

  * KISS FFT,   Version 131.1.0 (02/2021), License: BSD 3-clause
      (c) 2003-2010 Mark Borgerding, see https://github.com/mborgerding/kissfft

  * L-BFGS-B-C, Version 3.0 (04/2011),     License: BSD 3-clause
      (c) Stephen Becker, see https://github.com/stephenbeckr/L-BFGS-B-C

  * MT19937 Pseudo Random Number Gen.,     License: Custom (permissive)
      (c) 1997-2005 Makoto Matsumoto, Takuji Nishimura, Mutsuo Saito, see https://github.com/clibs/mt19937ar


Initializing SAN engine...
  Initialized SAN language:
    74 operators, 55 keywords, 4 namespaces, 27 types, 170 flags
Done.


>>> Reading Input File >>>

Reading input file "06_ground_md.mdinput" ...
  202 bytes read.
  9 lines.
  Tokenizing input...
Found 27 tokens in file.
  ( 19 identifiers,  7 numeric literals,  1 string literals )

<<< Finished Reading Input File <<<


Using the following settings:
  Interpret:              true
  Execution:              SAN-VM
  Parser Verbose level:   1
  Execute Verbose level:  1
  Static vars:            false
  Dynamic types:          true
  Max recursion depth:    200
  Max nesting depth:      1000
  Only parse:             false


>>> Parsing Input Script >>>

Processing units...
  Found unit "fs", which is the default.
  Found unit "K", which is the default.
  Found unit "K", which is the default.
  Found unit "fs", which is the default.
Handled 4 underscore identifiers.
Handling module imports...
  Importing module "Math" to global namespace.
  Importing module "MD" to global namespace.
Handled 2 module imports.
Handled 8 variable occurrences.
Assigned 8 identifiers.
Handling functions, iteration  1...
                    iteration  2...
                    iteration  3...
Handling FOR loops...
Handling AutoDecl,  iteration  1...
No auto declarations.
Assigned 7 flags, re-doing function handling...
Handling functions, iteration  1...
                    iteration  2...
  Moving "VOID" argument 2 ("Thermostat") of function "Initvel" up 1 levels to "ROOT".
                    iteration  3...
Handling FOR loops...
Handling AutoDecl,  iteration  1...
No auto declarations.
Handling functions, final pass...
Function handling done.
Handling keywords,  iteration  1...
Prepared 8 argument lists.
Assigned 15 read-only flags.
Assigned 25 simple VP flags.
Assigned 24 tree IDs.

<<< Finished Parsing Input Script <<<


SAN-VM: Compiling...
  Optimization level: Not specified. Using default ("-O2").
Done.


  Part              # Tokens    # Registers    # Shortcuts    # Optimizations
  ---------------------------------------------------------------------------
  [main program]          56              0              0                  0


-------------------------------------------------------------------------------------------

Initializing MD engine with interface "ORCA" ...


>>>>>>>>>>>>>>>>>>>>>>>>>>>>>>>>>>>>>>>>>>>>>>>>>>>>
>>>   Output of System Information (from ORCA)   >>>
>>>>>>>>>>>>>>>>>>>>>>>>>>>>>>>>>>>>>>>>>>>>>>>>>>>>

---------------------------------
CARTESIAN COORDINATES (ANGSTROEM)
---------------------------------
  O      0.000000    0.000000    0.000000
  H      0.000000    0.757160    0.586260
  H      0.000000   -0.757160    0.586260

----------------------------
CARTESIAN COORDINATES (A.U.)
----------------------------
  NO LB      ZA    FRAG     MASS         X           Y           Z
   0 O     8.0000    0    15.999    0.000000    0.000000    0.000000
   1 H     1.0000    0     1.008    0.000000    1.430825    1.107871
   2 H     1.0000    0     1.008    0.000000   -1.430825    1.107871

---------------------
BASIS SET INFORMATION
---------------------
There are 2 groups of distinct atoms

 Group   1 Type O   : 7s4p1d contracted to 3s2p1d pattern {511/31/1}
 Group   2 Type H   : 4s1p contracted to 2s1p pattern {31/1}

Atom   0O    basis set group =>   1
Atom   1H    basis set group =>   2
Atom   2H    basis set group =>   2
---------------------------------
AUXILIARY/J BASIS SET INFORMATION
---------------------------------
There are 2 groups of distinct atoms

 Group   1 Type O   : 12s5p4d2f1g contracted to 6s4p3d1f1g pattern {711111/2111/211/2/1}
 Group   2 Type H   : 5s2p1d contracted to 3s1p1d pattern {311/2/1}

Atom   0O    basis set group =>   1
Atom   1H    basis set group =>   2
Atom   2H    basis set group =>   2

############################################
   Total Atom Count:               3
   Total System Mass:           18.0 a.m.u.
   Total Basis Dimension:         24
   Total Electron Number:         10
   Total Charge:                   0
   Total Multiplicity:             1
   Spin Treatment:        Restricted
  ------------------------------------------
   ReducePrint:                 true
   Print Mulliken Pop:             1
   Print Loewdin Pop:              1
   Print Mayer Pop:                1
   Print Orbital Energies:         1
############################################

<<<<<<<<<<<<<<<<<<<<<<<<<<<<<<<<<<<<<<<<<<<<<<<<<<<<
<<<          End of System Information           <<<
<<<<<<<<<<<<<<<<<<<<<<<<<<<<<<<<<<<<<<<<<<<<<<<<<<<<


Initializing regions...

Defined regions:
         all:     3 atoms,     18.0 a.m.u.
          qm:   all
      active:   all



### System Geometry ###

  * Region "all" = "active" = "qm":
      Bounding box: from (    0.000 |   -0.757 |    0.000 )
                      to (    0.000 |    0.757 |    0.586 ) Angstrom
      System extent:     (    0.000 |    1.514 |    0.586 ) Angstrom
      Center of mass:    (    0.000 |    0.000 |    0.066 ) Angstrom
      Total mass:            18.015 a.m.u.



###############################################################
########        Executing Input Script (SAN-VM)        ########
###############################################################

Execution verbose level is 2.

-------------------------------------------------------------------------------------------



>>>>>> PrintLevel( Medium )

Setting SAN printlevel to "medium".


>>>>>> Randomize( 1127 )

Initialized random number generator seed to 1127.


>>>>>> Timestep( 0.500 )

Setting integration time step to 0.50 fs.

The lightest element in the active region has an atomic mass of 1.008 a.m.u.
Recommending time step within 0.50 .. 1.00 fs.
  --> choice seems reasonable


>>>>>> Initvel( 300.0 )

Old temperature of the total system is     0.000 K.

Initializing atom velocities for region "all" to 300.000 K:
  Creating Maxwell-Boltzmann distribution...
  Temperature after random initialization is 680.066 K.
  Rescaling velocities to match desired initial temperature (factor 0.664179)...
  Removing initial center of mass movement...
  Temperature after center of mass movement removal is 171.373 K.
  Rescaling velocities to match desired initial temperature (factor 1.323089)...
Done.

New temperature of the total system is   300.000 K.


>>>>>> Thermostat( NHC, 300.0, Timecon, 10.0 )

Warning: No NHC chain length specified. Using 3 as default.
Warning: No MTS count specified. Using 2 as default.
Warning: No Yoshida order specified. Using 3 as default.
Switching on thermostat for region "all": Type NHC, temperature 300.00 K, time constant 10.00 fs, global, chain length 3, MTS 2, Yoshida order 3.


>>>>>> SCFLog( Append )

Setting scflog to "append".


>>>>>> Dump( Position, Stride, 1, Filename, "trajectory.xyz" )

Modified writing position trajectory for region "all": Format XYZ, stride 1, filename "trajectory.xyz", append.


>>>>>> Run( 200 )


***************************************************
****    Starting MD loop for      200 steps    ****
***************************************************


Dump: Will write Position data of region "all" in XYZ format with stride 1 to "trajectory.xyz" (append).

Hint: To compute properties (dipole, etc.) in each step, specify "dump properties" before run.

Defined regions:
         all:     3 atoms,     18.0 a.m.u.
          qm:   all
      active:   all


Active Thermostats:
  (*) Region "all": Type NHC, temperature 300.00 K, time constant 10.00 fs, chain length 3, MTS 2, Yoshida order 3, global.
        NHC potential energy 0.0000 kJ/mol,  kinetic energy 1.8708 kJ/mol,  temperature 300.000 K.


Will write restart file to "06_ground_md.mdrestart" after each step.
Will write energy statistics to "06_ground_md-md-ener.csv" after each step.

The system contains 9 active degrees of freedom (3 active atoms * 3).


       Step |  Sim. Time | Iter |  t_Ener |  t_Grad |     Temp |     E_Kin |         E_Pot |         E_Tot |      Cons.Qty | E.Drift
            |       [fs] |      |     [s] |     [s] |      [K] | [Hartree] |     [Hartree] |     [Hartree] |     [Hartree] |     [K]
------------|------------|------|---------|---------|----------|-----------|---------------|---------------|---------------|-----------
          0          0.0     11      3.62               300.00    0.004275      -76.321083      -76.316807                          
          1          0.5      7      3.04      0.70     292.15    0.004163      -76.320676      -76.316513      -76.316656      0.00
          2          1.0      7      3.14      0.69     268.83    0.003831      -76.320194      -76.316363      -76.316638      0.64
          3          1.5      7      3.04      0.69     258.07    0.003678      -76.319909      -76.316231      -76.316626      1.03
          4          2.0      7      3.03      0.70     272.11    0.003878      -76.319994      -76.316117      -76.316631      0.88
          5          2.5      7      3.08      0.70     308.00    0.004389      -76.320396      -76.316007      -76.316648      0.27
          6          3.0      7      3.04      0.69     348.95    0.004973      -76.320860      -76.315887      -76.316667     -0.39
          7          3.5      7      3.03      0.71     375.36    0.005349      -76.321099      -76.315750      -76.316676     -0.71
          8          4.0      7      3.13      0.73     376.46    0.005365      -76.320966      -76.315601      -76.316672     -0.57
          9          4.5      7      3.03      0.69     354.93    0.005058      -76.320513      -76.315455      -76.316659     -0.12
         10          5.0      7      3.11      0.70     323.69    0.004613      -76.319934      -76.315321      -76.316644      0.40
         11          5.5      7      3.10      0.74     298.96    0.004260      -76.319466      -76.315205      -76.316633      0.79
         12          6.0      8      3.22      0.70     293.70    0.004185      -76.319290      -76.315104      -76.316630      0.92
         13          6.5      8      3.22      0.71     313.29    0.004465      -76.319476      -76.315012      -76.316634      0.76
         14          7.0      7      3.03      0.71     353.96    0.005044      -76.319964      -76.314920      -76.316645      0.36
         15          7.5      7      3.01      0.71     403.68    0.005753      -76.320575      -76.314822      -76.316661     -0.18
         16          8.0      7      3.10      0.69     445.81    0.006353      -76.321071      -76.314718      -76.316674     -0.65
         17          8.5      8      3.19      0.70     465.26    0.006630      -76.321236      -76.314606      -76.316680     -0.83
         18          9.0      8      3.25      0.69     456.04    0.006499      -76.320990      -76.314491      -76.316671     -0.55
         19          9.5      7      3.12      0.68     426.36    0.006076      -76.320454      -76.314378      -76.316652      0.14
         20         10.0      7      3.08      0.68     396.41    0.005649      -76.319928      -76.314279      -76.316631      0.86
         21         10.5      7      3.10      0.70     387.03    0.005515      -76.319718      -76.314202      -76.316624      1.10
         22         11.0      7      3.07      0.70     405.66    0.005781      -76.319930      -76.314149      -76.316636      0.69
         23         11.5      8      3.22      0.71     440.97    0.006284      -76.320391      -76.314107      -76.316658     -0.07
         24         12.0      8      3.20      0.73     470.98    0.006712      -76.320775      -76.314063      -76.316674     -0.65
         25         12.5      8      3.28      0.69     477.68    0.006807      -76.320820      -76.314013      -76.316677     -0.75
         26         13.0      8      3.20      0.69     456.78    0.006509      -76.320470      -76.313961      -76.316667     -0.40
         27         13.5      7      3.07      0.71     417.84    0.005954      -76.319868      -76.313913      -76.316651      0.16
         28         14.0      7      3.61      0.72     377.83    0.005384      -76.319259      -76.313875      -76.316636      0.70
         29         14.5      7      3.12      0.69     353.31    0.005035      -76.318883      -76.313848      -76.316627      1.02
         30         15.0      6      2.93      0.72     354.57    0.005053      -76.318885      -76.313832      -76.316626      1.06
         31         15.5      7      3.08      0.69     382.62    0.005453      -76.319279      -76.313827      -76.316633      0.79
         32         16.0      7      3.04      0.69     428.78    0.006110      -76.319941      -76.313831      -76.316648      0.29
         33         16.5      8      3.17      0.76     476.99    0.006797      -76.320640      -76.313843      -76.316664     -0.30
         34         17.0      8      3.18      0.70     508.80    0.007251      -76.321111      -76.313861      -76.316677     -0.74
         35         17.5      8      3.22      0.70     510.95    0.007281      -76.321161      -76.313880      -76.316678     -0.78
         36         18.0      8      3.20      0.70     483.15    0.006885      -76.320781      -76.313895      -76.316664     -0.28
         37         18.5      8      3.19      0.69     441.06    0.006285      -76.320196      -76.313911      -76.316640      0.56
         38         19.0      7      3.08      0.69     409.41    0.005834      -76.319771      -76.313937      -76.316621      1.21
         39         19.5      7      3.01      0.71     406.65    0.005795      -76.319782      -76.313987      -76.316622      1.19
         40         20.0      7      3.15      0.75     431.84    0.006154      -76.320220      -76.314066      -76.316641      0.51
         41         20.5      8      3.20      0.71     465.38    0.006632      -76.320796      -76.314164      -76.316665     -0.33
         42         21.0      8      3.19      0.71     483.02    0.006883      -76.321153      -76.314270      -76.316679     -0.80
         43         21.5      8      3.25      0.72     470.98    0.006712      -76.321088      -76.314377      -76.316677     -0.73
         44         22.0      8      3.18      0.71     431.74    0.006153      -76.320636      -76.314483      -76.316664     -0.28
         45         22.5      7      3.05      0.69     379.93    0.005414      -76.320003      -76.314589      -76.316647      0.29
         46         23.0      7      3.02      0.70     333.80    0.004757      -76.319453      -76.314696      -76.316634      0.75
         47         23.5      7      3.06      0.70     307.64    0.004384      -76.319194      -76.314810      -76.316628      0.96
         48         24.0      8      3.19      0.70     307.17    0.004377      -76.319315      -76.314938      -76.316631      0.86
         49         24.5      5      2.84      0.70     328.26    0.004678      -76.319769      -76.315091      -76.316640      0.54
         50         25.0      7      3.08      0.70     358.33    0.005106      -76.320386      -76.315280      -76.316655      0.03
         51         25.5      7      3.37      0.69     380.56    0.005423      -76.320927      -76.315504      -76.316669     -0.48
         52         26.0      7      3.03      0.71     380.65    0.005424      -76.321179      -76.315755      -76.316676     -0.72
         53         26.5      7      3.07      0.70     353.77    0.005041      -76.321056      -76.316015      -76.316671     -0.53
         54         27.0      7      3.04      0.71     308.48    0.004396      -76.320661      -76.316265      -76.316655      0.03
         55         27.5      7      3.09      0.69     263.26    0.003752      -76.320254      -76.316502      -76.316637      0.65
         56         28.0      8      3.25      0.74     235.66    0.003358      -76.320096      -76.316737      -76.316630      0.90
         57         28.5      7      3.08      0.72     230.97    0.003292      -76.320281      -76.316990      -76.316638      0.63
         58         29.0      7      3.25      0.71     239.61    0.003415      -76.320684      -76.317269      -76.316654      0.05
         59         29.5      7      3.13      0.69     245.02    0.003492      -76.321060      -76.317569      -76.316668     -0.45
         60         30.0      7      3.06      0.71     234.89    0.003347      -76.321215      -76.317868      -76.316674     -0.64
         61         30.5      7      3.11      0.71     207.31    0.002954      -76.321095      -76.318140      -76.316670     -0.51
         62         31.0      7      3.08      0.70     169.61    0.002417      -76.320785      -76.318368      -76.316662     -0.21
         63         31.5      7      3.06      0.68     132.94    0.001895      -76.320441      -76.318547      -76.316653      0.11
         64         32.0      7      3.04      0.72     106.98    0.001525      -76.320210      -76.318685      -76.316647      0.32
         65         32.5      4      2.64      0.71      96.57    0.001376      -76.320177      -76.318801      -76.316646      0.35
         66         33.0      6      2.94      0.71     100.76    0.001436      -76.320347      -76.318912      -76.316650      0.21
         67         33.5      6      2.94      0.69     113.67    0.001620      -76.320647      -76.319027      -76.316658     -0.07
         68         34.0      6      2.91      0.72     126.76    0.001806      -76.320953      -76.319147      -76.316666     -0.36
         69         34.5      6      2.98      0.71     131.90    0.001880      -76.321141      -76.319262      -76.316672     -0.56
         70         35.0      6      2.94      0.71     124.76    0.001778      -76.321138      -76.319360      -76.316671     -0.55
         71         35.5      6      2.89      0.74     107.11    0.001526      -76.320961      -76.319435      -76.316665     -0.32
         72         36.0      6      2.96      0.72      86.48    0.001232      -76.320718      -76.319486      -76.316655      0.01
         73         36.5      6      3.07      0.71      72.44    0.001032      -76.320556      -76.319523      -76.316649      0.25
         74         37.0      4      2.65      0.70      71.20    0.001015      -76.320573      -76.319559      -76.316648      0.26
         75         37.5      6      2.91      0.70      81.92    0.001167      -76.320766      -76.319598      -76.316655      0.02
         76         38.0      6      2.92      0.69      97.33    0.001387      -76.321028      -76.319641      -76.316664     -0.29
         77         38.5      6      2.93      0.69     108.20    0.001542      -76.321223      -76.319681      -76.316670     -0.51
         78         39.0      6      2.91      0.71     108.44    0.001545      -76.321258      -76.319713      -76.316671     -0.52
         79         39.5      6      2.90      0.70      97.68    0.001392      -76.321126      -76.319734      -76.316666     -0.36
         80         40.0      6      2.91      0.70      80.61    0.001149      -76.320895      -76.319746      -76.316659     -0.12
         81         40.5      6      2.96      0.74      64.32    0.000917      -76.320670      -76.319753      -76.316653      0.09
         82         41.0      6      3.12      0.69      55.13    0.000786      -76.320544      -76.319758      -76.316650      0.21
         83         41.5      4      2.78      0.71      56.18    0.000801      -76.320565      -76.319765      -76.316650      0.19
         84         42.0      6      3.17      0.71      66.42    0.000947      -76.320720      -76.319774      -76.316655      0.04
         85         42.5      6      3.09      0.72      80.91    0.001153      -76.320936      -76.319783      -76.316661     -0.19
         86         43.0      6      3.02      0.72      92.76    0.001322      -76.321112      -76.319790      -76.316667     -0.39
         87         43.5      6      3.03      0.69      96.06    0.001369      -76.321160      -76.319791      -76.316669     -0.45
         88         44.0      6      2.96      0.71      88.88    0.001267      -76.321052      -76.319785      -76.316665     -0.33
         89         44.5      6      2.94      0.73      74.90    0.001067      -76.320840      -76.319773      -76.316657     -0.05
         90         45.0      6      3.02      0.70      62.01    0.000884      -76.320643      -76.319760      -76.316650      0.22
         91         45.5      6      3.02      0.71      58.01    0.000827      -76.320577      -76.319750      -76.316647      0.32
         92         46.0      6      2.93      0.69      65.95    0.000940      -76.320685      -76.319746      -76.316650      0.19
         93         46.5      6      2.95      0.70      82.18    0.001171      -76.320913      -76.319742      -76.316658     -0.09
         94         47.0      6      2.98      0.72      98.62    0.001405      -76.321138      -76.319732      -76.316666     -0.34
         95         47.5      6      3.00      0.71     107.52    0.001532      -76.321246      -76.319714      -76.316668     -0.45
         96         48.0      6      2.98      0.71     105.30    0.001501      -76.321187      -76.319687      -76.316666     -0.36
         97         48.5      6      2.93      0.70      93.87    0.001338      -76.320994      -76.319656      -76.316660     -0.16
         98         49.0      6      2.99      0.72      79.10    0.001127      -76.320753      -76.319625      -76.316654      0.07
         99         49.5      6      2.97      0.69      68.00    0.000969      -76.320567      -76.319598      -76.316649      0.24
        100         50.0      4      2.64      0.70      65.90    0.000939      -76.320514      -76.319575      -76.316648      0.28
        101         50.5      6      2.93      0.71      74.38    0.001060      -76.320613      -76.319553      -76.316651      0.16
        102         51.0      6      2.91      0.69      90.67    0.001292      -76.320819      -76.319527      -76.316657     -0.06
        103         51.5      6      2.94      0.69     108.39    0.001545      -76.321038      -76.319493      -76.316664     -0.31
        104         52.0      6      2.98      0.68     120.02    0.001710      -76.321158      -76.319447      -76.316669     -0.47
        105         52.5      6      2.97      0.70     120.35    0.001715      -76.321105      -76.319390      -76.316668     -0.44
        106         53.0      6      3.05      0.73     109.63    0.001562      -76.320889      -76.319327      -76.316662     -0.21
        107         53.5      6      3.03      0.71      94.41    0.001345      -76.320610      -76.319265      -76.316652      0.13
        108         54.0      6      3.05      0.67      84.71    0.001207      -76.320416      -76.319209      -76.316645      0.38
        109         54.5      4      2.68      0.69      88.33    0.001259      -76.320418      -76.319159      -76.316645      0.37
        110         55.0      6      2.95      0.72     106.01    0.001511      -76.320619      -76.319108      -76.316653      0.11
        111         55.5      6      2.99      0.70     130.88    0.001865      -76.320909      -76.319044      -76.316663     -0.24
        112         56.0      6      2.99      0.69     152.59    0.002175      -76.321134      -76.318959      -76.316670     -0.48
        113         56.5      6      2.96      0.70     162.97    0.002322      -76.321177      -76.318855      -76.316670     -0.51
        114         57.0      6      2.98      0.76     159.86    0.002278      -76.321018      -76.318740      -76.316665     -0.32
        115         57.5      7      3.09      0.69     147.51    0.002102      -76.320727      -76.318625      -76.316657     -0.03
        116         58.0      7      3.12      0.74     134.19    0.001912      -76.320430      -76.318518      -76.316649      0.24
        117         58.5      7      3.13      0.72     128.58    0.001832      -76.320252      -76.318420      -76.316644      0.40
        118         59.0      6      2.96      0.70     136.37    0.001943      -76.320268      -76.318325      -76.316645      0.37
        119         59.5      7      3.10      0.70     157.95    0.002251      -76.320474      -76.318224      -76.316651      0.15
        120         60.0      7      3.19      0.70     187.71    0.002675      -76.320782      -76.318107      -76.316661     -0.17
        121         60.5      7      3.15      0.70     215.67    0.003073      -76.321044      -76.317971      -76.316670     -0.49
        122         61.0      7      3.12      0.76     231.47    0.003299      -76.321115      -76.317817      -76.316673     -0.61
        123         61.5      7      3.40      0.71     229.84    0.003275      -76.320928      -76.317653      -76.316668     -0.42
        124         62.0      7      3.33      0.69     214.79    0.003061      -76.320552      -76.317491      -76.316655      0.04
        125         62.5      7      3.10      0.70     198.99    0.002836      -76.320179      -76.317344      -76.316641      0.53
        126         63.0      7      3.14      0.71     196.80    0.002805      -76.320019      -76.317214      -76.316635      0.74
        127         63.5      7      3.09      0.70     215.03    0.003064      -76.320161      -76.317097      -76.316641      0.53
        128         64.0      7      3.09      0.68     248.22    0.003537      -76.320515      -76.316978      -76.316654      0.06
        129         64.5      7      3.34      0.70     282.32    0.004023      -76.320870      -76.316846      -76.316666     -0.35
        130         65.0      7      3.54      0.72     303.30    0.004322      -76.321024      -76.316702      -76.316670     -0.49
        131         65.5      7      3.32      0.70     304.54    0.004340      -76.320894      -76.316554      -76.316665     -0.32
        132         66.0      7      3.25      0.69     289.02    0.004119      -76.320533      -76.316415      -76.316654      0.06
        133         66.5      7      3.08      0.70     266.85    0.003803      -76.320093      -76.316291      -76.316642      0.48
        134         67.0      7      3.14      0.72     250.53    0.003570      -76.319755      -76.316185      -76.316633      0.80
        135         67.5      7      3.15      0.71     249.98    0.003562      -76.319657      -76.316094      -76.316630      0.90
        136         68.0      6      3.01      0.77     268.96    0.003833      -76.319847      -76.316014      -76.316634      0.76
        137         68.5      7      3.14      0.69     303.38    0.004323      -76.320261      -76.315938      -76.316644      0.41
        138         69.0      7      3.18      0.71     342.26    0.004877      -76.320738      -76.315861      -76.316657     -0.03
        139         69.5      7      3.21      0.69     371.53    0.005295      -76.321076      -76.315781      -76.316666     -0.36
        140         70.0      7      3.13      0.70     380.27    0.005419      -76.321118      -76.315699      -76.316667     -0.40
        141         70.5      7      3.10      0.69     366.93    0.005229      -76.320845      -76.315616      -76.316657     -0.04
        142         71.0      8      3.27      0.70     341.68    0.004869      -76.320407      -76.315538      -76.316640      0.54
        143         71.5      7      3.14      0.69     321.49    0.004581      -76.320055      -76.315473      -76.316627      1.00
        144         72.0      7      3.16      0.69     319.95    0.004560      -76.319987      -76.315427      -76.316626      1.03
        145         72.5      7      3.19      0.73     338.70    0.004827      -76.320222      -76.315396      -76.316638      0.64
        146         73.0      7      3.16      0.68     367.04    0.005231      -76.320601      -76.315370      -76.316653      0.09
        147         73.5      8      3.30      0.69     389.37    0.005549      -76.320892      -76.315343      -76.316664     -0.29
        148         74.0      8      3.34      0.71     394.17    0.005617      -76.320929      -76.315312      -76.316666     -0.36
        149         74.5      7      3.13      0.69     379.15    0.005403      -76.320682      -76.315279      -76.316660     -0.14
        150         75.0      7      3.10      0.70     351.17    0.005004      -76.320251      -76.315247      -76.316649      0.24
        151         75.5      7      3.14      0.68     322.32    0.004593      -76.319813      -76.315220      -76.316638      0.61
        152         76.0      7      3.09      0.69     304.79    0.004344      -76.319543      -76.315200      -76.316632      0.85
        153         76.5      6      3.05      0.71     306.30    0.004365      -76.319552      -76.315187      -76.316632      0.85
        154         77.0      7      3.29      0.71     327.23    0.004663      -76.319845      -76.315182      -76.316639      0.59
        155         77.5      7      3.04      0.69     360.14    0.005132      -76.320315      -76.315183      -76.316651      0.16
        156         78.0      7      3.04      0.70     392.05    0.005587      -76.320774      -76.315187      -76.316664     -0.29
        157         78.5      8      3.15      0.69     409.51    0.005836      -76.321024      -76.315188      -76.316671     -0.55
        158         79.0      8      3.17      0.69     405.17    0.005774      -76.320959      -76.315185      -76.316668     -0.44
        159         79.5      8      3.13      0.70     382.64    0.005453      -76.320629      -76.315176      -76.316655      0.02
        160         80.0      8      3.56      0.69     355.58    0.005067      -76.320235      -76.315167      -76.316639      0.58
        161         80.5      7      3.19      0.72     339.91    0.004844      -76.320012      -76.315168      -76.316631      0.88
        162         81.0      7      3.00      0.69     343.75    0.004899      -76.320082      -76.315183      -76.316635      0.73
        163         81.5      7      3.06      0.70     362.70    0.005169      -76.320377      -76.315208      -76.316648      0.29
        164         82.0      8      3.18      0.72     383.48    0.005465      -76.320703      -76.315238      -76.316661     -0.17
        165         82.5      8      3.14      0.69     392.45    0.005593      -76.320857      -76.315265      -76.316667     -0.41
        166         83.0      7      3.04      0.71     382.60    0.005452      -76.320740      -76.315288      -76.316666     -0.35
        167         83.5      7      3.01      0.69     356.05    0.005074      -76.320380      -76.315306      -76.316657     -0.06
        168         84.0      7      3.04      0.71     322.21    0.004592      -76.319913      -76.315322      -76.316647      0.32
        169         84.5      7      3.08      0.70     293.39    0.004181      -76.319518      -76.315337      -76.316637      0.65
        170         85.0      7      3.06      0.72     279.99    0.003990      -76.319346      -76.315356      -76.316633      0.79
        171         85.5      6      2.91      0.69     286.67    0.004085      -76.319467      -76.315381      -76.316636      0.70
        172         86.0      7      3.05      0.71     310.64    0.004427      -76.319841      -76.315414      -76.316644      0.40
        173         86.5      7      3.09      0.70     342.35    0.004879      -76.320331      -76.315452      -76.316656     -0.02
        174         87.0      7      3.07      0.69     368.90    0.005257      -76.320750      -76.315493      -76.316667     -0.38
        175         87.5      7      3.02      0.69     379.56    0.005409      -76.320942      -76.315533      -76.316670     -0.50
        176         88.0      7      3.07      0.69     371.15    0.005289      -76.320856      -76.315567      -76.316664     -0.29
        177         88.5      7      3.05      0.71     350.17    0.004990      -76.320588      -76.315598      -76.316652      0.14
        178         89.0      7      3.06      0.69     329.41    0.004694      -76.320325      -76.315630      -76.316641      0.52
        179         89.5      7      3.04      0.71     320.32    0.004565      -76.320236      -76.315671      -76.316638      0.62
        180         90.0      7      3.00      0.70     326.32    0.004650      -76.320374      -76.315723      -76.316644      0.40
        181         90.5      7      3.03      0.70     341.42    0.004865      -76.320650      -76.315785      -76.316656      0.00
        182         91.0      7      3.28      0.71     354.36    0.005050      -76.320901      -76.315851      -76.316666     -0.35
        183         91.5      7      3.26      0.71     355.02    0.005059      -76.320977      -76.315917      -76.316670     -0.50
        184         92.0      7      3.30      0.73     339.38    0.004836      -76.320817      -76.315980      -76.316667     -0.40
        185         92.5      7      3.18      0.71     311.06    0.004433      -76.320471      -76.316038      -76.316659     -0.11
        186         93.0      7      3.18      0.72     279.30    0.003980      -76.320072      -76.316092      -76.316649      0.24
        187         93.5      7      3.12      0.73     254.79    0.003631      -76.319776      -76.316145      -76.316641      0.50
        188         94.0      8      3.23      0.69     245.30    0.003496      -76.319698      -76.316202      -76.316639      0.58
        189         94.5      8      3.24      0.72     252.63    0.003600      -76.319868      -76.316268      -76.316643      0.44
        190         95.0      7      3.02      0.71     271.83    0.003874      -76.320218      -76.316345      -76.316652      0.13
        191         95.5      7      3.00      0.71     293.02    0.004176      -76.320608      -76.316433      -76.316662     -0.23
        192         96.0      7      3.00      0.70     305.38    0.004352      -76.320880      -76.316529      -76.316669     -0.47
        193         96.5      7      3.13      0.72     302.14    0.004306      -76.320932      -76.316627      -76.316669     -0.46
        194         97.0      7      3.01      0.69     284.26    0.004051      -76.320773      -76.316722      -76.316661     -0.19
        195         97.5      7      3.09      0.70     260.15    0.003707      -76.320522      -76.316815      -76.316650      0.19
        196         98.0      7      3.05      0.69     240.98    0.003434      -76.320345      -76.316911      -76.316642      0.47
        197         98.5      7      3.07      0.72     234.15    0.003337      -76.320353      -76.317016      -76.316642      0.48
        198         99.0      7      3.15      0.69     239.24    0.003409      -76.320546      -76.317137      -76.316649      0.25
        199         99.5      7      3.10      0.71     248.82    0.003546      -76.320819      -76.317273      -76.316658     -0.09
        200        100.0      7      3.03      0.69     252.99    0.003605      -76.321026      -76.317421      -76.316666     -0.37
------------|------------|------|---------|---------|----------|-----------|---------------|---------------|---------------|-----------
       Step |  Sim. Time | Iter |  t_Ener |  t_Grad |     Temp |     E_Kin |         E_Pot |         E_Tot |      Cons.Qty | E.Drift
            |       [fs] |      |     [s] |     [s] |      [K] | [Hartree] |     [Hartree] |     [Hartree] |     [Hartree] |     [K]


Finished MD run of 200 steps.


>>> Invariance Statistics >>>

    The maximal deviation of the gradient from translational invariance was 2.021e-10 Hartree Angstrom^-1.
    This would introduce a center of mass drift of 0.000 Kelvin within 1.0 ps.

    The maximal deviation of the gradient from rotational invariance was 7.116e-05 Hartree.
    This would introduce an overall rotation of 13.493 Kelvin within 1.0 ps.

<<< Invariance Statistics <<<


### System Geometry ###

  * Region "all" = "active" = "qm":
      Bounding box: from (   -0.026 |   -0.682 |   -0.540 )
                      to (    0.423 |    0.744 |    0.126 ) Angstrom
      System extent:     (    0.449 |    1.426 |    0.667 ) Angstrom
      Center of mass:    (    0.000 |    0.000 |    0.066 ) Angstrom



Thermostat Summary:
  (*) Region "all": Removed 1.98 kJ/mol of energy from the system (equivalent to 52.98 K).
        NHC potential energy -4.0733 kJ/mol,  kinetic energy 5.7720 kJ/mol,  temperature 925.609 K.


>>> Timing data >>>
    MD loop was running for 761.886 seconds (12m 41.886s)
    Performance: 3.809 seconds/step, 472.512 fs/hour.
    Average SCF iterations/step: 6.836
    Time spent within the MD module (overhead): 0.509 seconds (0.0668 % of total time).
<<< Timing data <<<


Finished MD loop.

-------------------------------------------------------------------------------------------

#######################################################################
########        Finished Executing Input Script (SAN-VM)       ########
#######################################################################

    Total execution time: 761.886 seconds (12m 41.886s)

            28 instructions executed
             8 function calls


Timings for individual modules during the MD run:

Startup calculation               ...      155.812 sec (=   2.597 min)  20.6 %
SCF iterations                    ...      459.292 sec (=   7.655 min)  60.9 %
SCF gradient evaluation           ...      139.468 sec (=   2.324 min)  18.5 %
Self time inside of MD module     ...        0.540 sec (=   0.009 min)   0.1 %

Sum of individual times           ...      755.113 sec (=  12.585 min)

Total wall time of MD module      ...      761.898 sec (=  12.698 min)
             --> "dark time"      ...        6.785 sec (=   0.113 min)   0.9 %

( The "dark time" is spent in the ORCA-internal routines for energy and gradient calculation,
  but not inside of the sub-programs which do so. It contains operating system overhead for
  spawning new processes in each MD step and some file IO time. )



    ###########################################################
    ####     ORCA ab initio Molecular Dynamics leaving     ####
    ####     Scriptable Nuclear Dynamics (SANdy) + ORCA    ####
    ####           (c) Martin Brehm, 2016 - 2024           ####
    ####           https://sanscript.org/orcamd            ####
    ###########################################################


--------------------------------
SUGGESTED CITATIONS FOR THIS RUN
--------------------------------

Below you find a list of papers that are relevant to this ORCA run
We neither can nor want to force you to cite these papers, but we appreciate if you do
You receive ORCA, which is the product of decades of hard work by many enthusiastic individuals, for free
The only thing we kindly ask in return is that you cite our papers,
We deeply appreciate it, if you show your appreciation for ORCA by not just citing the generic ORCA reference.

Please note that relegating all ORCA citations to the supporting information does *not* help us.
SI sections are not indexed - citations you put there will not count into any citation statistics
But we need these citations in order to attract the funding resources that allow us to do what we are doing

Therefore, if you are a happy ORCA user, please consider citing a few of the papers listed below in the main body of your paper

In addition to the list printed below, the program has created the file 06_ground_md.bibtex that contains the list in bibtex format
You can import this file easily into all common literature databanks and citation aid programs


List of essential papers. We consider these as the minimum necessary citations

  1. Neese,F.
     Software update: the ORCA program system, version 5.0
     WIRES Comput. Molec. Sci., 2022 12(1)e1606
     doi.org/10.1002/wcms.1606

List of papers to cite with high priority. The work reported in these papers was absolutely
necessary for this run to complete.
Our perspective: the developers of density functionals and basis sets usually get cited in chemistry papers
Good! But without the algorithms to do something with them, the functionals or basis sets would not do anything.
Hence, in our opinion, the algorithm design and method developments papers are equally worthy of getting cited

  1. Neese,F.
     An improvement of the resolution of the identity approximation for the formation of the Coulomb matrix
     J. Comp. Chem., 2003 24(14)1740-1747
     doi.org/10.1002/jcc.10318
  2. Neese,F.; Wennmohs,F.; Hansen,A.; Becker,U.
     Efficient, approximate and parallel Hartree-Fock and hybrid DFT calculations. A 'chain-of-spheres' algorithm for the Hartree-Fock exchange
     Chem. Phys., 2009 356(1-3)98-109
     doi.org/10.1016/j.chemphys.2008.10.036
  3. Helmich-Paris,B.; de Souza,B.; Neese,F.; Izsák,R.
     An improved chain of spheres for exchange algorithm
     J. Chem. Phys., 2021 155 104109
     doi.org/doi: 10.1063/5.0058766.
  4. Neese,F.
     The SHARK Integral Generation and Digestion System
     J. Comp. Chem., 2022  1-16
     doi.org/10.1002/jcc.26942

List of suggested additional citations. These are papers that are important in the 'surrounding' of 
of this run, or papers that preceded the highly important papers. If you like your results we are grateful for a citation.

  1. Izsak,R.; Neese,F.
     An overlap fitted chain of spheres exchange method
     J. Chem. Phys., 2011 135 144105
     doi.org/10.1063/1.3646921
  2. Izsak,R.; Hansen,A.; Neese,F.
     The resolution of identity and chain of spheres approximations for the LPNO-CCSD singles Fock term
     Molec. Phys., 2012 110 2413-2417
     doi.org/10.1080/00268976.2012.687466
  3. Neese,F.
     The ORCA program system
     WIRES Comput. Molec. Sci., 2012 2(1)73-78
     doi.org/10.1002/wcms.81
  4. Izsak,R.; Neese,F.; Klopper,W.
     Robust fitting techniques in the chain of spheres approximation to the Fock exchange: The role of the complementary space
     J. Chem. Phys., 2013 139 
     doi.org/10.1063/1.4819264
  5. Neese,F.
     Software update: the ORCA program system, version 4.0
     WIRES Comput. Molec. Sci., 2018 8(1)1-6
     doi.org/10.1002/wcms.1327
  6. Neese,F.; Wennmohs,F.; Becker,U.; Riplinger,C.
     The ORCA quantum chemistry program package
     J. Chem. Phys., 2020 152 Art. No. L224108
     doi.org/10.1063/5.0004608

List of optional additional citations

  1. Neese,F.
     Approximate second-order SCF convergence for spin unrestricted wavefunctions
     Chem. Phys. Lett., 2000 325(1-3)93-98
     doi.org/10.1016/s0009-2614(00)00662-x

Timings for individual modules:

Sum of individual times          ...      762.075 sec (=  12.701 min)
Molecular Dynamics run           ...      762.075 sec (=  12.701 min) 100.0 %
                             ****ORCA TERMINATED NORMALLY****
TOTAL RUN TIME: 0 days 0 hours 12 minutes 43 seconds 25 msec
